19
	Energy:     -21.2125779
C         -2.25926        0.88847        0.17946
C         -0.80010        0.87471       -0.27251
C          0.01597        2.04072        0.26982
H         -0.75099        0.85308       -1.36806
H         -0.34849       -0.05886        0.08485
N         -0.24805        3.27872       -0.42651
H          1.08276        1.83240        0.13516
H         -0.16507        2.19073        1.33950
C         -1.39958        4.00488       -0.39379
H          0.51402        3.74615       -0.90407
C         -2.59051        3.41617        0.32490
C         -3.05572        2.10298       -0.29373
H         -3.40413        4.14794        0.24557
H         -2.36251        3.31172        1.39101
H         -3.02816        2.16162       -1.38864
H         -4.10376        1.94394       -0.01110
H         -2.30660        0.82027        1.27341
H         -2.74601       -0.01539       -0.20739
O         -1.44039        5.10896       -0.93227
