9
	Energy:      -3.6753825
C          0.87234        0.02515       -0.21235
Cl         1.45876        1.55772        0.46150
O         -0.37629       -0.40823        0.38563
H         -0.55598       -1.28243        0.05808
C          1.84842       -1.10850       -0.00056
H          0.68837        0.20739       -1.25351
H          2.89950       -0.80608       -0.03307
H          1.67696       -1.79566       -0.83856
H          1.66462       -1.68468        0.90709
