19
	Energy:     -21.2125779
C		-0.74876	-1.63658	 0.17828
C		 0.71040	-1.65034	-0.27370
C		 1.52647	-0.48433	 0.26864
H		 0.75951	-1.67197	-1.36925
H		 1.16201	-2.58391	 0.08367
N		 1.26245	 0.75367	-0.42770
H		 2.59326	-0.69265	 0.13398
H		 1.34543	-0.33432	 1.33832
C		 0.11092	 1.47983	-0.39498
H		 2.02452	 1.22110	-0.90526
C		-1.08001	 0.89112	 0.32372
C		-1.54522	-0.42207	-0.29492
H		-1.89363	 1.62289	 0.24439
H		-0.85201	 0.78667	 1.38983
H		-1.51766	-0.36343	-1.38983
H		-2.59326	-0.58111	-0.01229
H		-0.79610	-1.70478	 1.27223
H		-1.23551	-2.54044	-0.20858
O		 0.07011	 2.58391	-0.93346

