5
	Energy:       0.1616005
C         -0.60106        0.99682       -0.04385
F          0.75580        0.98892       -0.05327
Br        -1.25509        2.59992       -0.91165
Cl        -1.18762        0.91704        1.61655
H         -0.96649        0.13512       -0.60779
